material_id,formula,band_gap,energy_above_hull,formation_energy_per_atom
mp-32800,Ac2S3,2.2962,0.0,-2.4930635934375003
mp-861605,AcH3,0.640699999999999,0.0,-0.671802030937499
mp-546190,Ag2O3,0.34700000000000003,0.019458467666665,-0.355224625666665
mp-18536,AgF3,0.20849999999999902,0.0,-1.128947433749999
mp-1079720,AgO,0.115999999999999,0.042348117499999005,-0.400223648333332
mp-1288,AgO,0.1826,0.047180410624999,-0.395391355208332
mp-8200,AgP2,0.6586999999999991,0.0009195113636370001,-0.038252180317459
mp-568761,AgTe,0.2411,0.000641469999997,-0.07075093374999801
mp-1591,Al4C3,1.3154,0.0,-0.23825637285714302
mp-1182902,AlF3,7.4904,0.041549064999999004,-3.82422034125
mp-1106356,AlH3,3.110699999999999,0.01001445875,-0.063617624062499
mp-1183246,AlH3,3.0448,0.004248899583333,-0.069383183229166
mp-23933,AlH3,2.197699999999999,0.0,-0.073632082812499
mp-570130,AlH3,3.1862,0.014584145416667001,-0.05904793739583201
mp-1550,AlP,1.6294,0.0,-0.737248783988095
mp-8880,AlP,1.9532999999999991,0.004434354999999,-0.732814428988096